<?xml version="1.0" encoding="UTF-8"?>

<!-- generated on Fri Nov 30 15:51:58 2018 by Eclipse SUMO GUI Version 1.0.1
<configuration xmlns:xsi="http://www.w3.org/2001/XMLSchema-instance" xsi:noNamespaceSchemaLocation="http://sumo.dlr.de/xsd/sumoConfiguration.xsd">

    <input>
        <net-file value="data/cross.net.xml"/>
        <route-files value="data/cross.rou.xml"/>
        <additional-files value="data/cross.det.xml"/>
    </input>

    <output>
        <tripinfo-output value="tripinfo.xml"/>
    </output>

    <time>
        <begin value="0"/>
    </time>

    <report>
        <verbose value="true"/>
        <no-warnings value="true"/>
        <no-step-log value="true"/>
    </report>

    <traci_server>
        <remote-port value="49924"/>
    </traci_server>

</configuration>
-->

<tripinfos xmlns:xsi="http://www.w3.org/2001/XMLSchema-instance" xsi:noNamespaceSchemaLocation="http://sumo.dlr.de/xsd/tripinfo_file.xsd">
    <tripinfo id="left_0" depart="0.00" departLane="52o_0" departPos="5.10" departSpeed="0.00" departDelay="0.00" arrival="88.00" arrivalLane="51i_0" arrivalPos="10.00" arrivalSpeed="11.60" duration="88.00" routeLength="1015.10" waitingTime="0.00" waitingCount="0" stopTime="0.00" timeLoss="14.79" rerouteNo="0" devices="tripinfo_left_0" vType="typeWE" speedFactor="1.06" vaporized=""/>
    <tripinfo id="right_1" depart="1.00" departLane="51o_0" departPos="5.10" departSpeed="0.00" departDelay="0.00" arrival="95.00" arrivalLane="52i_0" arrivalPos="10.00" arrivalSpeed="10.83" duration="94.00" routeLength="1015.10" waitingTime="0.00" waitingCount="0" stopTime="0.00" timeLoss="15.27" rerouteNo="0" devices="tripinfo_right_1" vType="typeWE" speedFactor="0.94" vaporized=""/>
    <tripinfo id="right_down_2" depart="6.00" departLane="51o_0" departPos="5.10" departSpeed="0.00" departDelay="5.00" arrival="98.00" arrivalLane="53i_0" arrivalPos="10.00" arrivalSpeed="11.32" duration="92.00" routeLength="996.93" waitingTime="0.00" waitingCount="0" stopTime="0.00" timeLoss="16.78" rerouteNo="0" devices="tripinfo_right_down_2" vType="typeWE" speedFactor="1.01" vaporized=""/>
    <tripinfo id="right_down_4" depart="11.00" departLane="51o_0" departPos="5.10" departSpeed="0.00" departDelay="6.00" arrival="102.00" arrivalLane="53i_0" arrivalPos="10.00" arrivalSpeed="12.03" duration="91.00" routeLength="996.93" waitingTime="0.00" waitingCount="0" stopTime="0.00" timeLoss="16.66" rerouteNo="0" devices="tripinfo_right_down_4" vType="typeWE" speedFactor="1.03" vaporized=""/>
    <tripinfo id="left_up_6" depart="15.00" departLane="52o_0" departPos="5.10" departSpeed="0.00" departDelay="7.00" arrival="107.00" arrivalLane="54i_0" arrivalPos="10.00" arrivalSpeed="12.02" duration="92.00" routeLength="996.93" waitingTime="0.00" waitingCount="0" stopTime="0.00" timeLoss="18.79" rerouteNo="0" devices="tripinfo_left_up_6" vType="typeWE" speedFactor="1.05" vaporized=""/>
    <tripinfo id="left_down_3" depart="5.00" departLane="52o_0" departPos="5.10" departSpeed="0.00" departDelay="2.00" arrival="108.00" arrivalLane="53i_0" arrivalPos="10.00" arrivalSpeed="12.42" duration="103.00" routeLength="1012.41" waitingTime="4.00" waitingCount="1" stopTime="0.00" timeLoss="29.66" rerouteNo="0" devices="tripinfo_left_down_3" vType="typeWE" speedFactor="1.08" vaporized=""/>
    <tripinfo id="left_up_7" depart="20.00" departLane="52o_0" departPos="5.10" departSpeed="0.00" departDelay="10.00" arrival="118.00" arrivalLane="54i_0" arrivalPos="10.00" arrivalSpeed="10.45" duration="98.00" routeLength="996.93" waitingTime="0.00" waitingCount="0" stopTime="0.00" timeLoss="16.68" rerouteNo="0" devices="tripinfo_left_up_7" vType="typeWE" speedFactor="0.89" vaporized=""/>
    <tripinfo id="right_9" depart="21.00" departLane="51o_0" departPos="5.10" departSpeed="0.00" departDelay="0.00" arrival="121.00" arrivalLane="52i_0" arrivalPos="10.00" arrivalSpeed="9.97" duration="100.00" routeLength="1015.10" waitingTime="0.00" waitingCount="0" stopTime="0.00" timeLoss="16.02" rerouteNo="0" devices="tripinfo_right_9" vType="typeWE" speedFactor="0.86" vaporized=""/>
    <tripinfo id="right_up_8" depart="16.00" departLane="51o_0" departPos="5.10" departSpeed="0.00" departDelay="6.00" arrival="122.00" arrivalLane="54i_0" arrivalPos="10.00" arrivalSpeed="10.78" duration="106.00" routeLength="1012.41" waitingTime="3.00" waitingCount="1" stopTime="0.00" timeLoss="26.78" rerouteNo="0" devices="tripinfo_right_up_8" vType="typeWE" speedFactor="0.94" vaporized=""/>
    <tripinfo id="left_19" depart="39.00" departLane="52o_0" departPos="5.10" departSpeed="0.00" departDelay="0.00" arrival="124.00" arrivalLane="51i_0" arrivalPos="10.00" arrivalSpeed="13.28" duration="85.00" routeLength="1015.10" waitingTime="0.00" waitingCount="0" stopTime="0.00" timeLoss="15.13" rerouteNo="0" devices="tripinfo_left_19" vType="typeWE" speedFactor="1.16" vaporized=""/>
    <tripinfo id="right_13" depart="27.00" departLane="51o_0" departPos="5.10" departSpeed="0.00" departDelay="0.00" arrival="125.00" arrivalLane="52i_0" arrivalPos="10.00" arrivalSpeed="12.31" duration="98.00" routeLength="1015.10" waitingTime="0.00" waitingCount="0" stopTime="0.00" timeLoss="27.18" rerouteNo="0" devices="tripinfo_right_13" vType="typeWE" speedFactor="1.12" vaporized=""/>
    <tripinfo id="right_up_14" depart="32.00" departLane="51o_0" departPos="5.10" departSpeed="0.00" departDelay="4.00" arrival="126.00" arrivalLane="54i_0" arrivalPos="10.00" arrivalSpeed="11.45" duration="94.00" routeLength="1012.41" waitingTime="0.00" waitingCount="0" stopTime="0.00" timeLoss="17.34" rerouteNo="0" devices="tripinfo_right_up_14" vType="typeWE" speedFactor="0.99" vaporized=""/>
    <tripinfo id="left_down_5" depart="10.00" departLane="52o_0" departPos="5.10" departSpeed="0.00" departDelay="3.00" arrival="132.00" arrivalLane="53i_0" arrivalPos="10.00" arrivalSpeed="10.21" duration="122.00" routeLength="1012.41" waitingTime="6.00" waitingCount="2" stopTime="0.00" timeLoss="34.79" rerouteNo="0" devices="tripinfo_left_down_5" vType="typeWE" speedFactor="0.83" vaporized=""/>
    <tripinfo id="left_20" depart="45.00" departLane="52o_0" departPos="5.10" departSpeed="0.00" departDelay="5.00" arrival="134.00" arrivalLane="51i_0" arrivalPos="10.00" arrivalSpeed="11.63" duration="89.00" routeLength="1015.10" waitingTime="0.00" waitingCount="0" stopTime="0.00" timeLoss="14.08" rerouteNo="0" devices="tripinfo_left_20" vType="typeWE" speedFactor="1.02" vaporized=""/>
    <tripinfo id="right_down_17" depart="37.00" departLane="51o_0" departPos="5.10" departSpeed="0.00" departDelay="3.00" arrival="134.00" arrivalLane="53i_0" arrivalPos="10.00" arrivalSpeed="11.05" duration="97.00" routeLength="996.93" waitingTime="0.00" waitingCount="0" stopTime="0.00" timeLoss="18.88" rerouteNo="0" devices="tripinfo_right_down_17" vType="typeWE" speedFactor="0.94" vaporized=""/>
    <tripinfo id="right_22" depart="47.00" departLane="51o_0" departPos="5.10" departSpeed="0.00" departDelay="5.00" arrival="139.00" arrivalLane="52i_0" arrivalPos="10.00" arrivalSpeed="11.30" duration="92.00" routeLength="1015.10" waitingTime="0.00" waitingCount="0" stopTime="0.00" timeLoss="14.42" rerouteNo="0" devices="tripinfo_right_22" vType="typeWE" speedFactor="0.98" vaporized=""/>
    <tripinfo id="right_down_18" depart="42.00" departLane="51o_0" departPos="5.10" departSpeed="0.00" departDelay="7.00" arrival="139.00" arrivalLane="53i_0" arrivalPos="10.00" arrivalSpeed="10.83" duration="97.00" routeLength="996.93" waitingTime="0.00" waitingCount="0" stopTime="0.00" timeLoss="18.97" rerouteNo="0" devices="tripinfo_right_down_18" vType="typeWE" speedFactor="0.94" vaporized=""/>
    <tripinfo id="left_21" depart="49.00" departLane="52o_0" departPos="5.10" departSpeed="0.00" departDelay="8.00" arrival="141.00" arrivalLane="51i_0" arrivalPos="10.00" arrivalSpeed="10.93" duration="92.00" routeLength="1015.10" waitingTime="1.00" waitingCount="1" stopTime="0.00" timeLoss="16.66" rerouteNo="0" devices="tripinfo_left_21" vType="typeWE" speedFactor="1.01" vaporized=""/>
    <tripinfo id="left_30" depart="65.00" departLane="52o_0" departPos="5.10" departSpeed="0.00" departDelay="12.00" arrival="149.00" arrivalLane="51i_1" arrivalPos="10.00" arrivalSpeed="13.63" duration="84.00" routeLength="1015.10" waitingTime="0.00" waitingCount="0" stopTime="0.00" timeLoss="14.91" rerouteNo="0" devices="tripinfo_left_30" vType="typeWE" speedFactor="1.18" vaporized=""/>
    <tripinfo id="right_25" depart="52.00" departLane="51o_0" departPos="5.10" departSpeed="0.00" departDelay="8.00" arrival="150.00" arrivalLane="52i_0" arrivalPos="10.00" arrivalSpeed="10.01" duration="98.00" routeLength="1015.10" waitingTime="0.00" waitingCount="0" stopTime="0.00" timeLoss="15.19" rerouteNo="0" devices="tripinfo_right_25" vType="typeWE" speedFactor="0.87" vaporized=""/>
    <tripinfo id="left_23" depart="55.00" departLane="52o_0" departPos="5.10" departSpeed="0.00" departDelay="12.00" arrival="152.00" arrivalLane="51i_0" arrivalPos="10.00" arrivalSpeed="10.01" duration="97.00" routeLength="1015.10" waitingTime="0.00" waitingCount="0" stopTime="0.00" timeLoss="15.05" rerouteNo="0" devices="tripinfo_left_23" vType="typeWE" speedFactor="0.89" vaporized=""/>
    <tripinfo id="right_31" depart="62.00" departLane="51o_0" departPos="5.10" departSpeed="0.00" departDelay="5.00" arrival="152.00" arrivalLane="52i_0" arrivalPos="10.00" arrivalSpeed="12.65" duration="90.00" routeLength="1015.10" waitingTime="0.00" waitingCount="0" stopTime="0.00" timeLoss="19.67" rerouteNo="0" devices="tripinfo_right_31" vType="typeWE" speedFactor="1.15" vaporized=""/>
    <tripinfo id="left_down_10" depart="26.00" departLane="52o_0" departPos="5.10" departSpeed="0.00" departDelay="4.00" arrival="153.00" arrivalLane="53i_0" arrivalPos="10.00" arrivalSpeed="12.22" duration="127.00" routeLength="1012.41" waitingTime="27.00" waitingCount="1" stopTime="0.00" timeLoss="54.38" rerouteNo="0" devices="tripinfo_left_down_10" vType="typeWE" speedFactor="1.09" vaporized=""/>
    <tripinfo id="left_27" depart="60.00" departLane="52o_0" departPos="5.10" departSpeed="0.00" departDelay="11.00" arrival="154.00" arrivalLane="51i_0" arrivalPos="10.00" arrivalSpeed="10.42" duration="94.00" routeLength="1015.10" waitingTime="0.00" waitingCount="0" stopTime="0.00" timeLoss="15.77" rerouteNo="0" devices="tripinfo_left_27" vType="typeWE" speedFactor="0.95" vaporized=""/>
    <tripinfo id="left_33" depart="71.00" departLane="52o_0" departPos="5.10" departSpeed="0.00" departDelay="3.00" arrival="155.00" arrivalLane="51i_1" arrivalPos="10.00" arrivalSpeed="13.71" duration="84.00" routeLength="1015.10" waitingTime="0.00" waitingCount="0" stopTime="0.00" timeLoss="14.18" rerouteNo="0" devices="tripinfo_left_33" vType="typeWE" speedFactor="1.17" vaporized=""/>
    <tripinfo id="right_32" depart="67.00" departLane="51o_0" departPos="5.10" departSpeed="0.00" departDelay="7.00" arrival="158.00" arrivalLane="52i_0" arrivalPos="10.00" arrivalSpeed="10.83" duration="91.00" routeLength="1015.10" waitingTime="0.00" waitingCount="0" stopTime="0.00" timeLoss="15.26" rerouteNo="0" devices="tripinfo_right_32" vType="typeWE" speedFactor="1.01" vaporized=""/>
    <tripinfo id="right_34" depart="72.00" departLane="51o_0" departPos="5.10" departSpeed="0.00" departDelay="1.00" arrival="163.00" arrivalLane="52i_0" arrivalPos="10.00" arrivalSpeed="11.60" duration="91.00" routeLength="1015.10" waitingTime="0.00" waitingCount="0" stopTime="0.00" timeLoss="15.09" rerouteNo="0" devices="tripinfo_right_34" vType="typeWE" speedFactor="0.99" vaporized=""/>
    <tripinfo id="right_29" depart="57.00" departLane="51o_0" departPos="5.10" departSpeed="0.00" departDelay="7.00" arrival="166.00" arrivalLane="52i_0" arrivalPos="10.00" arrivalSpeed="10.91" duration="109.00" routeLength="1015.10" waitingTime="0.00" waitingCount="0" stopTime="0.00" timeLoss="29.37" rerouteNo="0" devices="tripinfo_right_29" vType="typeWE" speedFactor="0.93" vaporized=""/>
    <tripinfo id="right_35" depart="77.00" departLane="51o_0" departPos="5.10" departSpeed="0.00" departDelay="5.00" arrival="167.00" arrivalLane="52i_0" arrivalPos="10.00" arrivalSpeed="10.71" duration="90.00" routeLength="1015.10" waitingTime="0.00" waitingCount="0" stopTime="0.00" timeLoss="15.12" rerouteNo="0" devices="tripinfo_right_35" vType="typeWE" speedFactor="1.02" vaporized=""/>
    <tripinfo id="right_up_36" depart="82.00" departLane="51o_0" departPos="5.10" departSpeed="0.00" departDelay="9.00" arrival="176.00" arrivalLane="54i_0" arrivalPos="10.00" arrivalSpeed="11.14" duration="94.00" routeLength="1012.41" waitingTime="0.00" waitingCount="0" stopTime="0.00" timeLoss="16.12" rerouteNo="0" devices="tripinfo_right_up_36" vType="typeWE" speedFactor="0.97" vaporized=""/>
    <tripinfo id="left_41" depart="89.00" departLane="52o_0" departPos="5.10" departSpeed="0.00" departDelay="3.00" arrival="181.00" arrivalLane="51i_0" arrivalPos="10.00" arrivalSpeed="10.95" duration="92.00" routeLength="1015.10" waitingTime="0.00" waitingCount="0" stopTime="0.00" timeLoss="14.31" rerouteNo="0" devices="tripinfo_left_41" vType="typeWE" speedFactor="0.96" vaporized=""/>
    <tripinfo id="left_down_39" depart="84.00" departLane="52o_0" departPos="5.10" departSpeed="0.00" departDelay="0.00" arrival="181.00" arrivalLane="53i_0" arrivalPos="10.00" arrivalSpeed="10.46" duration="97.00" routeLength="1012.41" waitingTime="0.00" waitingCount="0" stopTime="0.00" timeLoss="15.75" rerouteNo="0" devices="tripinfo_left_down_39" vType="typeWE" speedFactor="0.90" vaporized=""/>
    <tripinfo id="left_down_43" depart="94.00" departLane="52o_0" departPos="5.10" departSpeed="0.00" departDelay="7.00" arrival="185.00" arrivalLane="53i_0" arrivalPos="10.00" arrivalSpeed="11.78" duration="91.00" routeLength="1012.41" waitingTime="0.00" waitingCount="0" stopTime="0.00" timeLoss="16.30" rerouteNo="0" devices="tripinfo_left_down_43" vType="typeWE" speedFactor="1.04" vaporized=""/>
    <tripinfo id="right_up_38" depart="87.00" departLane="51o_0" departPos="5.10" departSpeed="0.00" departDelay="7.00" arrival="185.00" arrivalLane="54i_0" arrivalPos="10.00" arrivalSpeed="12.96" duration="98.00" routeLength="1012.41" waitingTime="1.00" waitingCount="1" stopTime="0.00" timeLoss="25.88" rerouteNo="0" devices="tripinfo_right_up_38" vType="typeWE" speedFactor="1.10" vaporized=""/>
    <tripinfo id="left_44" depart="99.00" departLane="52o_0" departPos="5.10" departSpeed="0.00" departDelay="8.00" arrival="188.00" arrivalLane="51i_0" arrivalPos="10.00" arrivalSpeed="12.04" duration="89.00" routeLength="1015.10" waitingTime="0.00" waitingCount="0" stopTime="0.00" timeLoss="15.13" rerouteNo="0" devices="tripinfo_left_44" vType="typeWE" speedFactor="1.04" vaporized=""/>
    <tripinfo id="right_51" depart="103.00" departLane="51o_0" departPos="5.10" departSpeed="0.00" departDelay="0.00" arrival="188.00" arrivalLane="52i_0" arrivalPos="10.00" arrivalSpeed="13.29" duration="85.00" routeLength="1015.10" waitingTime="0.00" waitingCount="0" stopTime="0.00" timeLoss="15.39" rerouteNo="0" devices="tripinfo_right_51" vType="typeWE" speedFactor="1.17" vaporized=""/>
    <tripinfo id="left_down_45" depart="104.00" departLane="52o_0" departPos="5.10" departSpeed="0.00" departDelay="10.00" arrival="193.00" arrivalLane="53i_0" arrivalPos="10.00" arrivalSpeed="12.55" duration="89.00" routeLength="1012.41" waitingTime="0.00" waitingCount="0" stopTime="0.00" timeLoss="16.29" rerouteNo="0" devices="tripinfo_left_down_45" vType="typeWE" speedFactor="1.09" vaporized=""/>
    <tripinfo id="left_46" depart="109.00" departLane="52o_0" departPos="5.10" departSpeed="0.00" departDelay="12.00" arrival="200.00" arrivalLane="51i_0" arrivalPos="10.00" arrivalSpeed="11.59" duration="91.00" routeLength="1015.10" waitingTime="0.00" waitingCount="0" stopTime="0.00" timeLoss="15.21" rerouteNo="0" devices="tripinfo_left_46" vType="typeWE" speedFactor="1.00" vaporized=""/>
    <tripinfo id="right_up_40" depart="92.00" departLane="51o_0" departPos="5.10" departSpeed="0.00" departDelay="7.00" arrival="200.00" arrivalLane="54i_0" arrivalPos="10.00" arrivalSpeed="11.96" duration="108.00" routeLength="1012.41" waitingTime="5.00" waitingCount="1" stopTime="0.00" timeLoss="32.92" rerouteNo="0" devices="tripinfo_right_up_40" vType="typeWE" speedFactor="1.03" vaporized=""/>
    <tripinfo id="right_55" depart="116.00" departLane="51o_0" departPos="5.10" departSpeed="0.00" departDelay="0.00" arrival="208.00" arrivalLane="52i_0" arrivalPos="10.00" arrivalSpeed="11.46" duration="92.00" routeLength="1015.10" waitingTime="0.00" waitingCount="0" stopTime="0.00" timeLoss="15.40" rerouteNo="0" devices="tripinfo_right_55" vType="typeWE" speedFactor="1.00" vaporized=""/>
    <tripinfo id="left_up_47" depart="114.00" departLane="52o_0" departPos="5.10" departSpeed="0.00" departDelay="17.00" arrival="211.00" arrivalLane="54i_0" arrivalPos="10.00" arrivalSpeed="10.32" duration="97.00" routeLength="996.93" waitingTime="0.00" waitingCount="0" stopTime="0.00" timeLoss="16.98" rerouteNo="0" devices="tripinfo_left_up_47" vType="typeWE" speedFactor="0.90" vaporized=""/>
    <tripinfo id="right_59" depart="121.00" departLane="51o_0" departPos="5.10" departSpeed="0.00" departDelay="0.00" arrival="215.00" arrivalLane="52i_0" arrivalPos="10.00" arrivalSpeed="11.36" duration="94.00" routeLength="1015.10" waitingTime="0.00" waitingCount="0" stopTime="0.00" timeLoss="16.29" rerouteNo="0" devices="tripinfo_right_59" vType="typeWE" speedFactor="0.97" vaporized=""/>
    <tripinfo id="up_right_28" depart="51.00" departLane="53o_0" departPos="7.10" departSpeed="0.00" departDelay="2.00" arrival="221.00" arrivalLane="52i_0" arrivalPos="10.00" arrivalSpeed="13.17" duration="170.00" routeLength="994.93" waitingTime="73.00" waitingCount="1" stopTime="0.00" timeLoss="104.53" rerouteNo="0" devices="tripinfo_up_right_28" vType="typeNS" speedFactor="1.13" vaporized=""/>
    <tripinfo id="down_left12" depart="30.00" departLane="54o_0" departPos="7.10" departSpeed="0.00" departDelay="6.00" arrival="223.00" arrivalLane="51i_0" arrivalPos="10.00" arrivalSpeed="12.24" duration="193.00" routeLength="994.93" waitingTime="94.00" waitingCount="1" stopTime="0.00" timeLoss="125.05" rerouteNo="0" devices="tripinfo_down_left12" vType="typeNS" speedFactor="1.05" vaporized=""/>
    <tripinfo id="down_11" depart="24.00" departLane="54o_0" departPos="7.10" departSpeed="0.00" departDelay="0.00" arrival="224.00" arrivalLane="53i_0" arrivalPos="10.00" arrivalSpeed="11.75" duration="200.00" routeLength="1013.10" waitingTime="99.00" waitingCount="1" stopTime="0.00" timeLoss="130.28" rerouteNo="0" devices="tripinfo_down_11" vType="typeNS" speedFactor="1.03" vaporized=""/>
    <tripinfo id="down_42" depart="86.00" departLane="54o_0" departPos="7.10" departSpeed="0.00" departDelay="0.00" arrival="224.00" arrivalLane="53i_1" arrivalPos="10.00" arrivalSpeed="12.41" duration="138.00" routeLength="1013.10" waitingTime="35.00" waitingCount="1" stopTime="0.00" timeLoss="70.90" rerouteNo="0" devices="tripinfo_down_42" vType="typeNS" speedFactor="1.09" vaporized=""/>
    <tripinfo id="up_right_16" depart="32.00" departLane="53o_0" departPos="7.10" departSpeed="0.00" departDelay="0.00" arrival="228.00" arrivalLane="52i_0" arrivalPos="10.00" arrivalSpeed="10.30" duration="196.00" routeLength="994.93" waitingTime="90.00" waitingCount="1" stopTime="0.00" timeLoss="114.91" rerouteNo="0" devices="tripinfo_up_right_16" vType="typeNS" speedFactor="0.88" vaporized=""/>
    <tripinfo id="up_26" depart="45.00" departLane="53o_0" departPos="7.10" departSpeed="0.00" departDelay="0.00" arrival="228.00" arrivalLane="54i_0" arrivalPos="10.00" arrivalSpeed="10.75" duration="183.00" routeLength="1013.10" waitingTime="78.00" waitingCount="1" stopTime="0.00" timeLoss="105.32" rerouteNo="0" devices="tripinfo_up_26" vType="typeNS" speedFactor="0.92" vaporized=""/>
    <tripinfo id="left_down_50" depart="119.00" departLane="52o_0" departPos="5.10" departSpeed="0.00" departDelay="20.00" arrival="230.00" arrivalLane="53i_0" arrivalPos="10.00" arrivalSpeed="9.55" duration="111.00" routeLength="1012.41" waitingTime="2.00" waitingCount="1" stopTime="0.00" timeLoss="26.15" rerouteNo="0" devices="tripinfo_left_down_50" vType="typeWE" speedFactor="0.85" vaporized=""/>
    <tripinfo id="up_right_48" depart="97.00" departLane="53o_0" departPos="7.10" departSpeed="0.00" departDelay="0.00" arrival="233.00" arrivalLane="52i_0" arrivalPos="10.00" arrivalSpeed="10.30" duration="136.00" routeLength="994.93" waitingTime="29.00" waitingCount="1" stopTime="0.00" timeLoss="55.07" rerouteNo="0" devices="tripinfo_up_right_48" vType="typeNS" speedFactor="0.88" vaporized=""/>
    <tripinfo id="down_24" depart="43.00" departLane="54o_0" departPos="7.10" departSpeed="0.00" departDelay="0.00" arrival="233.00" arrivalLane="53i_0" arrivalPos="10.00" arrivalSpeed="9.33" duration="190.00" routeLength="1013.10" waitingTime="78.00" waitingCount="1" stopTime="0.00" timeLoss="103.83" rerouteNo="0" devices="tripinfo_down_24" vType="typeNS" speedFactor="0.83" vaporized=""/>
    <tripinfo id="up_right_68" depart="144.00" departLane="53o_0" departPos="7.10" departSpeed="0.00" departDelay="0.00" arrival="234.00" arrivalLane="52i_1" arrivalPos="10.00" arrivalSpeed="11.93" duration="90.00" routeLength="994.93" waitingTime="0.00" waitingCount="0" stopTime="0.00" timeLoss="21.26" rerouteNo="0" devices="tripinfo_up_right_68" vType="typeNS" speedFactor="1.04" vaporized=""/>
    <tripinfo id="up_left_54" depart="115.00" departLane="53o_0" departPos="7.10" departSpeed="0.00" departDelay="0.00" arrival="234.00" arrivalLane="51i_1" arrivalPos="10.00" arrivalSpeed="11.41" duration="119.00" routeLength="1010.41" waitingTime="15.00" waitingCount="2" stopTime="0.00" timeLoss="47.61" rerouteNo="0" devices="tripinfo_up_left_54" vType="typeNS" speedFactor="1.00" vaporized=""/>
    <tripinfo id="down_left49" depart="98.00" departLane="54o_0" departPos="7.10" departSpeed="0.00" departDelay="0.00" arrival="236.00" arrivalLane="51i_0" arrivalPos="10.00" arrivalSpeed="9.64" duration="138.00" routeLength="994.93" waitingTime="27.00" waitingCount="1" stopTime="0.00" timeLoss="54.47" rerouteNo="0" devices="tripinfo_down_left49" vType="typeNS" speedFactor="0.85" vaporized=""/>
    <tripinfo id="down_right_37" depart="79.00" departLane="54o_0" departPos="7.10" departSpeed="0.00" departDelay="0.00" arrival="240.00" arrivalLane="52i_0" arrivalPos="10.00" arrivalSpeed="13.35" duration="161.00" routeLength="1010.41" waitingTime="60.00" waitingCount="2" stopTime="0.00" timeLoss="96.59" rerouteNo="0" devices="tripinfo_down_right_37" vType="typeNS" speedFactor="1.18" vaporized=""/>
    <tripinfo id="down_right_15" depart="36.00" departLane="54o_0" departPos="7.10" departSpeed="0.00" departDelay="6.00" arrival="246.00" arrivalLane="52i_0" arrivalPos="10.00" arrivalSpeed="10.50" duration="210.00" routeLength="1010.41" waitingTime="102.00" waitingCount="2" stopTime="0.00" timeLoss="132.32" rerouteNo="0" devices="tripinfo_down_right_15" vType="typeNS" speedFactor="0.93" vaporized=""/>
    <tripinfo id="down_71" depart="156.00" departLane="54o_0" departPos="7.10" departSpeed="0.00" departDelay="0.00" arrival="246.00" arrivalLane="53i_0" arrivalPos="10.00" arrivalSpeed="11.02" duration="90.00" routeLength="1013.10" waitingTime="0.00" waitingCount="0" stopTime="0.00" timeLoss="16.06" rerouteNo="0" devices="tripinfo_down_71" vType="typeNS" speedFactor="0.97" vaporized=""/>
    <tripinfo id="right_70" depart="155.00" departLane="51o_0" departPos="5.10" departSpeed="0.00" departDelay="2.00" arrival="252.00" arrivalLane="52i_0" arrivalPos="10.00" arrivalSpeed="11.61" duration="97.00" routeLength="1015.10" waitingTime="0.00" waitingCount="0" stopTime="0.00" timeLoss="22.01" rerouteNo="0" devices="tripinfo_right_70" vType="typeWE" speedFactor="1.02" vaporized=""/>
    <tripinfo id="left_57" depart="139.00" departLane="52o_0" departPos="5.10" departSpeed="0.00" departDelay="21.00" arrival="253.00" arrivalLane="51i_0" arrivalPos="10.00" arrivalSpeed="13.32" duration="114.00" routeLength="1015.10" waitingTime="16.00" waitingCount="1" stopTime="0.00" timeLoss="43.72" rerouteNo="0" devices="tripinfo_left_57" vType="typeWE" speedFactor="1.14" vaporized=""/>
    <tripinfo id="right_73" depart="165.00" departLane="51o_0" departPos="5.10" departSpeed="0.00" departDelay="4.00" arrival="254.00" arrivalLane="52i_0" arrivalPos="10.00" arrivalSpeed="12.06" duration="89.00" routeLength="1015.10" waitingTime="0.00" waitingCount="0" stopTime="0.00" timeLoss="15.62" rerouteNo="0" devices="tripinfo_right_73" vType="typeWE" speedFactor="1.06" vaporized=""/>
    <tripinfo id="right_72" depart="160.00" departLane="51o_0" departPos="5.10" departSpeed="0.00" departDelay="1.00" arrival="255.00" arrivalLane="52i_0" arrivalPos="10.00" arrivalSpeed="10.79" duration="95.00" routeLength="1015.10" waitingTime="0.00" waitingCount="0" stopTime="0.00" timeLoss="15.98" rerouteNo="0" devices="tripinfo_right_72" vType="typeWE" speedFactor="0.94" vaporized=""/>
    <tripinfo id="left_52" depart="124.00" departLane="52o_0" departPos="5.10" departSpeed="0.00" departDelay="19.00" arrival="256.00" arrivalLane="51i_0" arrivalPos="10.00" arrivalSpeed="11.91" duration="132.00" routeLength="1015.10" waitingTime="31.00" waitingCount="1" stopTime="0.00" timeLoss="57.10" rerouteNo="0" devices="tripinfo_left_52" vType="typeWE" speedFactor="1.02" vaporized=""/>
    <tripinfo id="right_63" depart="134.00" departLane="51o_0" departPos="5.10" departSpeed="0.00" departDelay="0.00" arrival="258.00" arrivalLane="52i_0" arrivalPos="10.00" arrivalSpeed="11.50" duration="124.00" routeLength="1015.10" waitingTime="21.00" waitingCount="1" stopTime="0.00" timeLoss="47.24" rerouteNo="0" devices="tripinfo_right_63" vType="typeWE" speedFactor="0.99" vaporized=""/>
    <tripinfo id="left_60" depart="149.00" departLane="52o_0" departPos="5.10" departSpeed="0.00" departDelay="26.00" arrival="259.00" arrivalLane="51i_0" arrivalPos="10.00" arrivalSpeed="12.43" duration="110.00" routeLength="1015.10" waitingTime="9.00" waitingCount="1" stopTime="0.00" timeLoss="37.10" rerouteNo="0" devices="tripinfo_left_60" vType="typeWE" speedFactor="1.08" vaporized=""/>
    <tripinfo id="left_58" depart="144.00" departLane="52o_0" departPos="5.10" departSpeed="0.00" departDelay="25.00" arrival="259.00" arrivalLane="51i_1" arrivalPos="10.00" arrivalSpeed="11.47" duration="115.00" routeLength="1015.10" waitingTime="12.00" waitingCount="1" stopTime="0.00" timeLoss="39.66" rerouteNo="0" devices="tripinfo_left_58" vType="typeWE" speedFactor="1.02" vaporized=""/>
    <tripinfo id="right_down_69" depart="150.00" departLane="51o_0" departPos="5.10" departSpeed="0.00" departDelay="0.00" arrival="260.00" arrivalLane="53i_0" arrivalPos="10.00" arrivalSpeed="11.84" duration="110.00" routeLength="996.93" waitingTime="6.00" waitingCount="1" stopTime="0.00" timeLoss="34.91" rerouteNo="0" devices="tripinfo_right_down_69" vType="typeWE" speedFactor="1.02" vaporized=""/>
    <tripinfo id="right_down_67" depart="144.00" departLane="51o_0" departPos="5.10" departSpeed="0.00" departDelay="0.00" arrival="262.00" arrivalLane="53i_0" arrivalPos="10.00" arrivalSpeed="10.54" duration="118.00" routeLength="996.93" waitingTime="13.00" waitingCount="1" stopTime="0.00" timeLoss="38.44" rerouteNo="0" devices="tripinfo_right_down_67" vType="typeWE" speedFactor="0.91" vaporized=""/>
    <tripinfo id="left_up_56" depart="134.00" departLane="52o_0" departPos="5.10" departSpeed="0.00" departDelay="17.00" arrival="262.00" arrivalLane="54i_0" arrivalPos="10.00" arrivalSpeed="10.48" duration="128.00" routeLength="996.93" waitingTime="23.00" waitingCount="1" stopTime="0.00" timeLoss="47.49" rerouteNo="0" devices="tripinfo_left_up_56" vType="typeWE" speedFactor="0.90" vaporized=""/>
    <tripinfo id="left_64" depart="165.00" departLane="52o_0" departPos="5.10" departSpeed="0.00" departDelay="31.00" arrival="264.00" arrivalLane="51i_0" arrivalPos="10.00" arrivalSpeed="10.89" duration="99.00" routeLength="1015.10" waitingTime="0.00" waitingCount="0" stopTime="0.00" timeLoss="19.88" rerouteNo="0" devices="tripinfo_left_64" vType="typeWE" speedFactor="0.94" vaporized=""/>
    <tripinfo id="right_down_74" depart="170.00" departLane="51o_0" departPos="5.10" departSpeed="0.00" departDelay="9.00" arrival="264.00" arrivalLane="53i_0" arrivalPos="10.00" arrivalSpeed="10.87" duration="94.00" routeLength="996.93" waitingTime="0.00" waitingCount="0" stopTime="0.00" timeLoss="16.76" rerouteNo="0" devices="tripinfo_right_down_74" vType="typeWE" speedFactor="0.96" vaporized=""/>
    <tripinfo id="left_down_53" depart="129.00" departLane="52o_0" departPos="5.10" departSpeed="0.00" departDelay="15.00" arrival="266.00" arrivalLane="53i_0" arrivalPos="10.00" arrivalSpeed="12.26" duration="137.00" routeLength="1012.41" waitingTime="34.00" waitingCount="2" stopTime="0.00" timeLoss="64.67" rerouteNo="0" devices="tripinfo_left_down_53" vType="typeWE" speedFactor="1.10" vaporized=""/>
    <tripinfo id="left_65" depart="170.00" departLane="52o_0" departPos="5.10" departSpeed="0.00" departDelay="32.00" arrival="268.00" arrivalLane="51i_0" arrivalPos="10.00" arrivalSpeed="10.20" duration="98.00" routeLength="1015.10" waitingTime="0.00" waitingCount="0" stopTime="0.00" timeLoss="16.26" rerouteNo="0" devices="tripinfo_left_65" vType="typeWE" speedFactor="0.88" vaporized=""/>
    <tripinfo id="left_61" depart="154.00" departLane="52o_0" departPos="5.10" departSpeed="0.00" departDelay="30.00" arrival="268.00" arrivalLane="51i_1" arrivalPos="10.00" arrivalSpeed="12.69" duration="114.00" routeLength="1015.10" waitingTime="9.00" waitingCount="2" stopTime="0.00" timeLoss="42.46" rerouteNo="0" devices="tripinfo_left_61" vType="typeWE" speedFactor="1.12" vaporized=""/>