<?xml version="1.0" encoding="UTF-8"?>

<!-- generated on Thu Nov  8 13:42:58 2018 by Eclipse SUMO GUI Version 1.0.1
<configuration xmlns:xsi="http://www.w3.org/2001/XMLSchema-instance" xsi:noNamespaceSchemaLocation="http://sumo.dlr.de/xsd/sumoConfiguration.xsd">

    <input>
        <net-file value="data/cross.net.xml"/>
        <route-files value="data/cross.rou.xml"/>
        <additional-files value="data/cross.det.xml"/>
    </input>

    <output>
        <tripinfo-output value="tripinfo.xml"/>
    </output>

    <time>
        <begin value="0"/>
    </time>

    <report>
        <verbose value="true"/>
        <no-step-log value="true"/>
    </report>

    <traci_server>
        <remote-port value="55019"/>
    </traci_server>

</configuration>
-->

<detector xmlns:xsi="http://www.w3.org/2001/XMLSchema-instance" xsi:noNamespaceSchemaLocation="http://sumo.dlr.de/xsd/det_e1_file.xsd">
    <interval begin="0.00" end="30.00" id="0" nVehContrib="0" flow="0.00" occupancy="0.00" speed="-1.00" length="-1.00" nVehEntered="0"/>
    <interval begin="30.00" end="60.00" id="0" nVehContrib="0" flow="0.00" occupancy="0.00" speed="-1.00" length="-1.00" nVehEntered="0"/>
    <interval begin="60.00" end="90.00" id="0" nVehContrib="3" flow="360.00" occupancy="3.92" speed="18.08" length="7.00" nVehEntered="3"/>
    <interval begin="90.00" end="120.00" id="0" nVehContrib="0" flow="0.00" occupancy="0.00" speed="-1.00" length="-1.00" nVehEntered="0"/>
    <interval begin="120.00" end="150.00" id="0" nVehContrib="1" flow="120.00" occupancy="1.51" speed="15.41" length="7.00" nVehEntered="1"/>
    <interval begin="150.00" end="180.00" id="0" nVehContrib="0" flow="0.00" occupancy="0.00" speed="-1.00" length="-1.00" nVehEntered="0"/>
    <interval begin="180.00" end="210.00" id="0" nVehContrib="1" flow="120.00" occupancy="1.35" speed="17.25" length="7.00" nVehEntered="1"/>
    <interval begin="210.00" end="240.00" id="0" nVehContrib="1" flow="120.00" occupancy="1.21" speed="19.28" length="7.00" nVehEntered="2"/>
    <interval begin="240.00" end="270.00" id="0" nVehContrib="1" flow="120.00" occupancy="1.39" speed="16.83" length="7.00" nVehEntered="1"/>
    <interval begin="270.00" end="300.00" id="0" nVehContrib="1" flow="120.00" occupancy="1.45" speed="16.07" length="7.00" nVehEntered="1"/>
    <interval begin="300.00" end="330.00" id="0" nVehContrib="1" flow="120.00" occupancy="1.59" speed="14.66" length="7.00" nVehEntered="1"/>
    <interval begin="330.00" end="360.00" id="0" nVehContrib="1" flow="120.00" occupancy="1.49" speed="15.64" length="7.00" nVehEntered="1"/>
    <interval begin="360.00" end="390.00" id="0" nVehContrib="1" flow="120.00" occupancy="1.62" speed="14.42" length="7.00" nVehEntered="1"/>
    <interval begin="390.00" end="420.00" id="0" nVehContrib="1" flow="120.00" occupancy="1.51" speed="15.49" length="7.00" nVehEntered="1"/>
    <interval begin="420.00" end="450.00" id="0" nVehContrib="3" flow="360.00" occupancy="3.89" speed="18.07" length="7.00" nVehEntered="3"/>
    <interval begin="450.00" end="480.00" id="0" nVehContrib="0" flow="0.00" occupancy="0.00" speed="-1.00" length="-1.00" nVehEntered="1"/>
    <interval begin="480.00" end="510.00" id="0" nVehContrib="0" flow="0.00" occupancy="0.00" speed="-1.00" length="-1.00" nVehEntered="0"/>
    <interval begin="510.00" end="540.00" id="0" nVehContrib="1" flow="120.00" occupancy="1.42" speed="16.44" length="7.00" nVehEntered="1"/>
    <interval begin="540.00" end="570.00" id="0" nVehContrib="1" flow="120.00" occupancy="1.60" speed="14.60" length="7.00" nVehEntered="1"/>
    <interval begin="570.00" end="600.00" id="0" nVehContrib="0" flow="0.00" occupancy="0.00" speed="-1.00" length="-1.00" nVehEntered="0"/>
    <interval begin="600.00" end="630.00" id="0" nVehContrib="2" flow="240.00" occupancy="2.42" speed="19.31" length="7.00" nVehEntered="2"/>
    <interval begin="630.00" end="660.00" id="0" nVehContrib="1" flow="120.00" occupancy="1.37" speed="17.01" length="7.00" nVehEntered="2"/>
    <interval begin="660.00" end="690.00" id="0" nVehContrib="1" flow="120.00" occupancy="1.83" speed="12.78" length="7.00" nVehEntered="1"/>
    <interval begin="690.00" end="720.00" id="0" nVehContrib="3" flow="360.00" occupancy="4.27" speed="16.49" length="7.00" nVehEntered="3"/>
    <interval begin="720.00" end="750.00" id="0" nVehContrib="1" flow="120.00" occupancy="1.48" speed="15.81" length="7.00" nVehEntered="1"/>
    <interval begin="750.00" end="780.00" id="0" nVehContrib="1" flow="120.00" occupancy="1.72" speed="13.60" length="7.00" nVehEntered="1"/>
    <interval begin="780.00" end="810.00" id="0" nVehContrib="3" flow="360.00" occupancy="4.17" speed="16.86" length="7.00" nVehEntered="3"/>
    <interval begin="810.00" end="840.00" id="0" nVehContrib="3" flow="360.00" occupancy="5.77" speed="12.41" length="7.00" nVehEntered="3"/>
    <interval begin="840.00" end="855.00" id="0" nVehContrib="0" flow="0.00" occupancy="0.00" speed="-1.00" length="-1.00" nVehEntered="0"/>
</detector>
